LAMMPS data file for a bead-spring chain with N=10 beads

10 atoms
1 atom types

9 bonds
1 bond types

-10.0 10.0 xlo xhi
-10.0 10.0 ylo yhi
-10.0 10.0 zlo zhi

Masses

1 1.0

Atoms

1 1 1 0.0 0.0 0.0
2 1 1 0.97 0.0 0.0
3 1 1 1.94 0.0 0.0
4 1 1 2.91 0.0 0.0
5 1 1 3.88 0.0 0.0
6 1 1 4.85 0.0 0.0
7 1 1 5.82 0.0 0.0
8 1 1 6.79 0.0 0.0
9 1 1 7.76 0.0 0.0
10 1 1 8.73 0.0 0.0

Bonds

1 1 1 2
2 1 2 3
3 1 3 4
4 1 4 5
5 1 5 6
6 1 6 7
7 1 7 8
8 1 8 9
9 1 9 10
